ITEM: TIMESTEP
0
ITEM: NUMBER OF ATOMS
9472
ITEM: BOX BOUNDS ff ff ff
-1.1000000000000000e+02 6.0000000000000000e+01
-3.0000000000000000e+01 2.2000000000000000e+02
-9.0000000000000000e+01 1.3000000000000000e+02
ITEM: ATOMS id type mol x y z c_surface_coords[1] c_surface_coords[2] c_surface_coords[3] c_surface_coords[4] c_surface_coords[5] c_surface_coords[6] c_surface_coords[7] c_surface_coords[8] c_surface_coords[9]
10878 2 65535 -7.0207 133.36 -79.1207 -4.92888 135 -79.7565 -9.98666 135 -78.9925 -6.14656 130.079 -78.613
10879 2 65535 -3.69182 131.676 -79.1064 -4.92888 135 -79.7565 -6.14656 130.079 -78.613 -1.95712e-14 129.95 -78.9498
8973 2 65535 2.99466 136.629 -79.8639 4.92973 135 -79.7564 4.05424 139.886 -79.8354 0 135 -80
10632 2 65535 1.64324 133.317 -79.5687 4.92973 135 -79.7564 0 135 -80 -1.95712e-14 129.95 -78.9498
10877 2 65535 -1.64296 133.317 -79.5688 0 135 -80 -4.92888 135 -79.7565 -1.95712e-14 129.95 -78.9498
9131 2 65535 7.81746 136.629 -79.3383 8.53425 139.886 -79.2663 4.92973 135 -79.7564 9.98839 135 -78.9922
10336 2 65535 3.65292 131.69 -79.1164 6.02904 130.118 -78.6431 4.92973 135 -79.7564 -1.95712e-14 129.95 -78.9498
10337 2 65535 6.98239 133.373 -79.1305 9.98839 135 -78.9922 4.92973 135 -79.7564 6.02904 130.118 -78.6431
9755 2 65535 -10.3206 138.324 -78.8822 -8.10789 140.009 -79.3382 -12.8673 139.962 -78.316 -9.98666 135 -78.9925
9756 2 65535 -10.57 141.659 -78.8294 -12.8673 139.962 -78.316 -8.10789 140.009 -79.3382 -10.7348 145.007 -78.8341
9754 2 65535 -5.52403 138.395 -79.6565 -3.53531 140.176 -79.8749 -8.10789 140.009 -79.3382 -4.92888 135 -79.7565
9758 2 65535 -5.77405 141.75 -79.6298 -8.10789 140.009 -79.3382 -3.53531 140.176 -79.8749 -5.67894 145.065 -79.6765
9996 2 65535 -7.67448 136.67 -79.3624 -8.10789 140.009 -79.3382 -9.98666 135 -78.9925 -4.92888 135 -79.7565
9997 2 65535 -2.8214 136.725 -79.8771 -3.53531 140.176 -79.8749 -4.92888 135 -79.7565 0 135 -80
8975 2 65535 2.37305 141.691 -79.9138 4.05424 139.886 -79.8354 3.0649 145.188 -79.906 1.60812e-14 140 -80
9130 2 65535 1.35141 138.295 -79.9451 4.05424 139.886 -79.8354 1.60812e-14 140 -80 0 135 -80
9753 2 65535 -1.17844 138.392 -79.9583 1.60812e-14 140 -80 -3.53531 140.176 -79.8749 0 135 -80
9760 2 65535 -1.17844 141.725 -79.9583 -3.53531 140.176 -79.8749 1.60812e-14 140 -80 1.60812e-14 145 -80
8974 2 65535 5.83941 138.257 -79.6193 8.53425 139.886 -79.2663 4.05424 139.886 -79.8354 4.92973 135 -79.7564
9125 2 65535 6.56206 141.59 -79.5318 7.09769 144.997 -79.4937 4.05424 139.886 -79.8354 8.53425 139.886 -79.2663
8972 2 65535 10.5613 138.271 -78.8317 13.1612 139.927 -78.2367 8.53425 139.886 -79.2663 9.98839 135 -78.9922
9126 2 65535 11.0593 141.591 -78.7222 11.4825 144.959 -78.6637 8.53425 139.886 -79.2663 13.1612 139.927 -78.2367
9759 2 65535 -8.31698 146.699 -79.2588 -10.7348 145.007 -78.8341 -5.67894 145.065 -79.6765 -8.53722 150.025 -79.2658
9993 2 65535 -8.17387 143.36 -79.2829 -5.67894 145.065 -79.6765 -10.7348 145.007 -78.8341 -8.10789 140.009 -79.3382
9990 2 65535 -3.14318 146.687 -79.8452 -3.7506 149.995 -79.8591 -5.67894 145.065 -79.6765 1.60812e-14 145 -80
9991 2 65535 -3.07142 143.414 -79.8504 1.60812e-14 145 -80 -5.67894 145.065 -79.6765 -3.53531 140.176 -79.8749
9127 2 65535 1.02163 146.729 -79.9687 -6.12323e-15 150 -80 1.60812e-14 145 -80 3.0649 145.188 -79.906
9129 2 65535 1.02163 143.396 -79.9687 3.0649 145.188 -79.906 1.60812e-14 145 -80 1.60812e-14 140 -80
8976 2 65535 4.73894 143.357 -79.745 7.09769 144.997 -79.4937 3.0649 145.188 -79.906 4.05424 139.886 -79.8354
9128 2 65535 5.04775 146.76 -79.717 4.98068 150.094 -79.7513 3.0649 145.188 -79.906 7.09769 144.997 -79.4937
8980 2 65535 9.03813 143.281 -79.1412 11.4825 144.959 -78.6637 7.09769 144.997 -79.4937 8.53425 139.886 -79.2663
9123 2 65535 9.38752 146.663 -79.0768 9.58241 150.033 -79.0732 7.09769 144.997 -79.4937 11.4825 144.959 -78.6637
9772 2 65535 -10.9018 151.695 -78.7554 -13.3476 150.037 -78.1855 -8.53722 150.025 -79.2658 -10.8207 155.022 -78.8151
9992 2 65535 -10.8732 148.356 -78.7618 -8.53722 150.025 -79.2658 -13.3476 150.037 -78.1855 -10.7348 145.007 -78.8341
9762 2 65535 -5.98892 148.362 -79.6005 -3.7506 149.995 -79.8591 -8.53722 150.025 -79.2658 -5.67894 145.065 -79.6765
9775 2 65535 -3.13828 153.324 -79.8458 -6.12323e-15 155 -80 -5.66423 154.977 -79.6781 -3.7506 149.995 -79.8591
9976 2 65535 -5.98402 151.666 -79.601 -8.53722 150.025 -79.2658 -3.7506 149.995 -79.8591 -5.66423 154.977 -79.6781
8978 2 65535 2.68186 148.427 -79.8858 4.98068 150.094 -79.7513 -6.12323e-15 150 -80 3.0649 145.188 -79.906
8989 2 65535 2.75629 151.714 -79.881 4.98068 150.094 -79.7513 3.28819 155.048 -79.8918 -6.12323e-15 150 -80
9761 2 65535 -1.2502 148.332 -79.953 -6.12323e-15 150 -80 -3.7506 149.995 -79.8591 1.60812e-14 145 -80
9977 2 65535 -1.2502 151.665 -79.953 -3.7506 149.995 -79.8591 -6.12323e-15 150 -80 -6.12323e-15 155 -80
8977 2 65535 7.22026 148.375 -79.4394 9.58241 150.033 -79.0732 4.98068 150.094 -79.7513 7.09769 144.997 -79.4937
9112 2 65535 7.38882 151.724 -79.4143 7.60337 155.046 -79.4185 4.98068 150.094 -79.7513 9.58241 150.033 -79.0732
9776 2 65535 -8.3407 153.341 -79.253 -5.66423 154.977 -79.6781 -10.8207 155.022 -78.8151 -8.53722 150.025 -79.2658
9777 2 65535 -8.27445 156.658 -79.2643 -10.8207 155.022 -78.8151 -5.66423 154.977 -79.6781 -8.33846 159.974 -79.2998
9975 2 65535 -10.7892 158.334 -78.7796 -8.33846 159.974 -79.2998 -13.2084 160.006 -78.2238 -10.8207 155.022 -78.8151
9780 2 65535 -5.87333 158.307 -79.6156 -3.61731 159.971 -79.869 -8.33846 159.974 -79.2998 -5.66423 154.977 -79.6781
9973 2 65535 -3.09385 156.649 -79.849 -3.61731 159.971 -79.869 -5.66423 154.977 -79.6781 -6.12323e-15 155 -80
8992 2 65535 2.80991 158.361 -79.8756 5.14153 160.034 -79.7349 1.60812e-14 160 -80 3.28819 155.048 -79.8918
9114 2 65535 1.09606 156.683 -79.9639 1.60812e-14 160 -80 -6.12323e-15 155 -80 3.28819 155.048 -79.8918
9116 2 65535 1.09606 153.349 -79.9639 3.28819 155.048 -79.8918 -6.12323e-15 155 -80 -6.12323e-15 150 -80
9779 2 65535 -1.20577 158.324 -79.9563 1.60812e-14 160 -80 -3.61731 159.971 -79.869 -6.12323e-15 155 -80
8990 2 65535 5.29075 153.396 -79.6872 7.60337 155.046 -79.4185 3.28819 155.048 -79.8918 4.98068 150.094 -79.7513
8991 2 65535 7.55333 158.37 -79.3868 9.91509 160.031 -79.0071 5.14153 160.034 -79.7349 7.60337 155.046 -79.4185
9115 2 65535 5.34436 156.709 -79.6817 5.14153 160.034 -79.7349 3.28819 155.048 -79.8918 7.60337 155.046 -79.4185
8994 2 65535 9.7693 153.373 -79 12.1221 155.038 -78.5083 7.60337 155.046 -79.4185 9.58241 150.033 -79.0732
9110 2 65535 9.88019 156.705 -78.978 9.91509 160.031 -79.0071 7.60337 155.046 -79.4185 12.1221 155.038 -78.5083
9778 2 65535 -10.7674 161.644 -78.7844 -13.2084 160.006 -78.2238 -8.33846 159.974 -79.2998 -10.7553 164.954 -78.8295
9782 2 65535 -8.25421 163.281 -79.269 -5.66886 164.916 -79.6776 -10.7553 164.954 -78.8295 -8.33846 159.974 -79.2998
9781 2 65535 -3.09539 163.296 -79.8489 1.60812e-14 165 -80 -5.66886 164.916 -79.6776 -3.61731 159.971 -79.869
9971 2 65535 -5.87488 161.62 -79.6155 -8.33846 159.974 -79.2998 -3.61731 159.971 -79.869 -5.66886 164.916 -79.6776
8997 2 65535 2.83625 161.691 -79.8738 5.14153 160.034 -79.7349 3.36723 165.04 -79.8865 1.60812e-14 160 -80
9109 2 65535 1.12241 163.347 -79.9622 3.36723 165.04 -79.8865 1.60812e-14 165 -80 1.60812e-14 160 -80
9972 2 65535 -1.20577 161.657 -79.9563 -3.61731 159.971 -79.869 1.60812e-14 160 -80 1.60812e-14 165 -80
8998 2 65535 5.43065 163.367 -79.6706 7.78318 165.026 -79.3905 3.36723 165.04 -79.8865 5.14153 160.034 -79.7349
9001 2 65535 7.61327 161.697 -79.3775 5.14153 160.034 -79.7349 9.91509 160.031 -79.0071 7.78318 165.026 -79.3905
9106 2 65535 10.034 163.357 -78.9449 9.91509 160.031 -79.0071 12.4037 165.013 -78.4371 7.78318 165.026 -79.3905
9832 2 65535 -11.0523 168.272 -78.7225 -8.83823 169.899 -79.2127 -13.5635 169.962 -78.1252 -10.7553 164.954 -78.8295
9922 2 65535 -8.42079 166.59 -79.2399 -8.83823 169.899 -79.2127 -10.7553 164.954 -78.8295 -5.66886 164.916 -79.6776
9831 2 65535 -6.22778 168.19 -79.5718 -4.17626 169.755 -79.8253 -8.83823 169.899 -79.2127 -5.66886 164.916 -79.6776
9923 2 65535 -3.28171 166.557 -79.8343 -4.17626 169.755 -79.8253 -5.66886 164.916 -79.6776 1.60812e-14 165 -80
9000 2 65535 2.88261 168.364 -79.869 5.28061 170.052 -79.7204 -6.12323e-15 170 -80 3.36723 165.04 -79.8865
9107 2 65535 1.12241 166.68 -79.9622 -6.12323e-15 170 -80 1.60812e-14 165 -80 3.36723 165.04 -79.8865
9830 2 65535 -1.39209 168.252 -79.9418 -6.12323e-15 170 -80 -4.17626 169.755 -79.8253 1.60812e-14 165 -80
8999 2 65535 7.73829 168.361 -79.3565 10.1511 170.006 -78.9587 5.28061 170.052 -79.7204 7.78318 165.026 -79.3905
9108 2 65535 5.47701 166.706 -79.6658 5.28061 170.052 -79.7204 3.36723 165.04 -79.8865 7.78318 165.026 -79.3905
9002 2 65535 10.1126 166.681 -78.9288 7.78318 165.026 -79.3905 12.4037 165.013 -78.4371 10.1511 170.006 -78.9587
9919 2 65535 -9.24322 173.288 -79.1012 -7.18119 174.976 -79.4816 -11.7102 174.99 -78.6094 -8.83823 169.899 -79.2127
9835 2 65535 -6.73189 171.543 -79.5065 -8.83823 169.899 -79.2127 -4.17626 169.755 -79.8253 -7.18119 174.976 -79.4816
9838 2 65535 -4.81647 173.288 -79.7371 -3.09195 175.134 -79.9043 -7.18119 174.976 -79.4816 -4.17626 169.755 -79.8253
9917 2 65535 -2.42274 171.63 -79.9099 -3.09195 175.134 -79.9043 -4.17626 169.755 -79.8253 -6.12323e-15 170 -80
8882 2 65535 2.93662 171.713 -79.8652 5.28061 170.052 -79.7204 3.52924 175.087 -79.8753 -6.12323e-15 170 -80
9218 2 65535 1.17641 173.362 -79.9584 3.52924 175.087 -79.8753 -6.12323e-15 175 -80 -6.12323e-15 170 -80
9837 2 65535 -1.03065 173.378 -79.9681 -6.12323e-15 175 -80 -3.09195 175.134 -79.9043 -6.12323e-15 170 -80
8883 2 65535 5.63112 173.391 -79.646 8.0835 175.034 -79.3422 3.52924 175.087 -79.8753 5.28061 170.052 -79.7204
9212 2 65535 7.8384 171.697 -79.3404 8.0835 175.034 -79.3422 5.28061 170.052 -79.7204 10.1511 170.006 -78.9587
8890 2 65535 10.3253 173.341 -78.8834 12.7414 174.983 -78.3493 8.0835 175.034 -79.3422 10.1511 170.006 -78.9587
9836 2 65535 -9.53816 176.667 -79.0455 -11.7102 174.99 -78.6094 -7.18119 174.976 -79.4816 -9.72305 180.035 -79.0455
9839 2 65535 -2.70547 178.407 -79.8837 -6.12323e-15 180 -80 -5.02447 180.088 -79.7469 -3.09195 175.134 -79.9043
9840 2 65535 -7.30957 178.366 -79.4247 -5.02447 180.088 -79.7469 -9.72305 180.035 -79.0455 -7.18119 174.976 -79.4816
9915 2 65535 -5.0992 176.733 -79.7109 -7.18119 174.976 -79.4816 -3.09195 175.134 -79.9043 -5.02447 180.088 -79.7469
8884 2 65535 1.17641 176.696 -79.9584 -6.12323e-15 175 -80 3.52924 175.087 -79.8753 -6.12323e-15 180 -80
9217 2 65535 3.03372 178.378 -79.8546 3.52924 175.087 -79.8753 5.57191 180.046 -79.6886 -6.12323e-15 180 -80
9916 2 65535 -1.03065 176.711 -79.9681 -3.09195 175.134 -79.9043 -6.12323e-15 175 -80 -6.12323e-15 180 -80
8887 2 65535 5.72822 176.723 -79.6354 3.52924 175.087 -79.8753 8.0835 175.034 -79.3422 5.57191 180.046 -79.6886
9215 2 65535 8.07126 178.366 -79.3011 8.0835 175.034 -79.3422 10.5584 180.017 -78.8725 5.57191 180.046 -79.6886
9208 2 65535 10.4611 176.678 -78.8547 10.5584 180.017 -78.8725 8.0835 175.034 -79.3422 12.7414 174.983 -78.3493
9890 2 65535 -9.91131 183.37 -78.9695 -7.68614 185.044 -79.4057 -12.3247 185.032 -78.4572 -9.72305 180.035 -79.0455
9865 2 65535 -7.47788 181.722 -79.3994 -9.72305 180.035 -79.0455 -5.02447 180.088 -79.7469 -7.68614 185.044 -79.4057
9868 2 65535 -5.33865 183.393 -79.6811 -3.30536 185.047 -79.8906 -7.68614 185.044 -79.4057 -5.02447 180.088 -79.7469
9888 2 65535 -2.77661 181.712 -79.8792 -3.30536 185.047 -79.8906 -5.02447 180.088 -79.7469 -6.12323e-15 180 -80
8885 2 65535 3.08599 181.681 -79.8508 5.57191 180.046 -79.6886 3.68605 184.997 -79.8639 -6.12323e-15 180 -80
9206 2 65535 1.22868 186.666 -79.9546 -6.12323e-15 190 -80 -6.12323e-15 185 -80 3.68605 184.997 -79.8639
9216 2 65535 1.22868 183.332 -79.9546 3.68605 184.997 -79.8639 -6.12323e-15 185 -80 -6.12323e-15 180 -80
9867 2 65535 -1.10179 183.349 -79.9635 -6.12323e-15 185 -80 -3.30536 185.047 -79.8906 -6.12323e-15 180 -80
8886 2 65535 5.8812 183.356 -79.6148 8.38564 185.023 -79.2918 3.68605 184.997 -79.8639 5.57191 180.046 -79.6886
8888 2 65535 8.17197 181.696 -79.2843 5.57191 180.046 -79.6886 10.5584 180.017 -78.8725 8.38564 185.023 -79.2918
9207 2 65535 5.88234 186.659 -79.6146 5.57534 189.956 -79.6882 3.68605 184.997 -79.8639 8.38564 185.023 -79.2918
9214 2 65535 10.6791 183.357 -78.8065 10.5584 180.017 -78.8725 13.0932 185.03 -78.2553 8.38564 185.023 -79.2918
9866 2 65535 -10.0153 186.705 -78.9485 -12.3247 185.032 -78.4572 -7.68614 185.044 -79.4057 -10.0351 190.038 -78.9826
9869 2 65535 -2.83053 188.356 -79.8736 -6.12323e-15 190 -80 -5.18623 190.021 -79.7303 -3.30536 185.047 -79.8906
9870 2 65535 -7.63582 188.368 -79.3729 -5.18623 190.021 -79.7303 -10.0351 190.038 -78.9826 -7.68614 185.044 -79.4057
9873 2 65535 -7.67186 191.697 -79.3672 -10.0351 190.038 -78.9826 -5.18623 190.021 -79.7303 -7.79426 195.031 -79.3888
9881 2 65535 -2.84308 191.667 -79.8728 -3.34302 194.98 -79.8881 -5.18623 190.021 -79.7303 -6.12323e-15 190 -80
9886 2 65535 -5.39257 186.704 -79.6755 -7.68614 185.044 -79.4057 -3.30536 185.047 -79.8906 -5.18623 190.021 -79.7303
8896 2 65535 3.08713 188.318 -79.8507 5.57534 189.956 -79.6882 -6.12323e-15 190 -80 3.68605 184.997 -79.8639
8897 2 65535 3.0235 191.611 -79.8553 5.57534 189.956 -79.6882 3.49517 194.878 -79.8777 -6.12323e-15 190 -80
9887 2 65535 -1.10179 186.682 -79.9635 -3.30536 185.047 -79.8906 -6.12323e-15 185 -80 -6.12323e-15 190 -80
8895 2 65535 8.19092 188.338 -79.2803 10.6118 190.036 -78.8609 5.57534 189.956 -79.6882 8.38564 185.023 -79.2918
8901 2 65535 8.08529 191.661 -79.2979 5.57534 189.956 -79.6882 10.6118 190.036 -78.8609 8.06876 194.991 -79.3447
9198 2 65535 10.6969 186.696 -78.8027 10.6118 190.036 -78.8609 8.38564 185.023 -79.2918 13.0932 185.03 -78.2553
9874 2 65535 -10.1304 196.687 -78.9231 -12.5321 195.029 -78.404 -7.79426 195.031 -79.3888 -10.0649 200 -78.9765
9883 2 65535 -10.1205 193.366 -78.9251 -7.79426 195.031 -79.3888 -12.5321 195.029 -78.404 -10.0351 190.038 -78.9826
9876 2 65535 -5.44117 193.344 -79.6691 -3.34302 194.98 -79.8881 -7.79426 195.031 -79.3888 -5.18623 190.021 -79.7303
9879 2 65535 -5.39857 196.671 -79.6735 -7.79426 195.031 -79.3888 -3.34302 194.98 -79.8881 -5.05842 200 -79.7435
9203 2 65535 1.16506 196.626 -79.9592 -6.12323e-15 200 -80 -6.12323e-15 195 -80 3.49517 194.878 -79.8777
9205 2 65535 1.16506 193.293 -79.9592 3.49517 194.878 -79.8777 -6.12323e-15 195 -80 -6.12323e-15 190 -80
9875 2 65535 -1.11434 193.327 -79.9627 -6.12323e-15 195 -80 -3.34302 194.98 -79.8881 -6.12323e-15 190 -80
9880 2 65535 -1.11434 196.66 -79.9627 -3.34302 194.98 -79.8881 -6.12323e-15 195 -80 -6.12323e-15 200 -80
8898 2 65535 5.71309 193.275 -79.6368 8.06876 194.991 -79.3447 3.49517 194.878 -79.8777 5.57534 189.956 -79.6882
9204 2 65535 5.54078 196.623 -79.6553 5.05842 200 -79.7435 3.49517 194.878 -79.8777 8.06876 194.991 -79.3447
8902 2 65535 10.3269 196.679 -78.8809 8.06876 194.991 -79.3447 12.8469 195.046 -78.3214 10.0649 200 -78.9765
9202 2 65535 10.5091 193.358 -78.8423 10.6118 190.036 -78.8609 12.8469 195.046 -78.3214 8.06876 194.991 -79.3447
9877 2 65535 -2.80048 198.327 -79.8772 -6.12323e-15 200 -80 -5.05842 200 -79.7435 -3.34302 194.98 -79.8881
9878 2 65535 -7.6392 198.344 -79.3696 -5.05842 200 -79.7435 -10.0649 200 -78.9765 -7.79426 195.031 -79.3888
8900 2 65535 2.85119 198.293 -79.8737 5.05842 200 -79.7435 -6.12323e-15 200 -80 3.49517 194.878 -79.8777
8899 2 65535 7.7307 198.33 -79.3549 10.0649 200 -78.9765 5.05842 200 -79.7435 8.06876 194.991 -79.3447
10871 2 65535 -9.88638 124.171 -73.8391 -8.08651 125.485 -75.6824 -12.8195 125.257 -74.3978 -8.75315 121.77 -71.437
10870 2 65535 -5.32173 124.399 -74.8466 -3.56976 125.779 -76.4807 -8.08651 125.485 -75.6824 -4.30891 121.932 -72.3766
10885 2 65535 -7.04952 123.062 -73.1654 -8.08651 125.485 -75.6824 -8.75315 121.77 -71.437 -4.30891 121.932 -72.3766
10886 2 65535 -2.62622 123.229 -73.8395 -3.56976 125.779 -76.4807 -4.30891 121.932 -72.3766 0 121.977 -72.6611
10333 2 65535 2.50372 123.25 -73.8705 4.08239 121.949 -72.4248 3.42878 125.825 -76.5257 0 121.977 -72.6611
10634 2 65535 1.14293 124.409 -75.1778 3.42878 125.825 -76.5257 -1.85304e-14 125.426 -76.3467 0 121.977 -72.6611
10869 2 65535 -1.18992 124.394 -75.1629 -1.85304e-14 125.426 -76.3467 -3.56976 125.779 -76.4807 0 121.977 -72.6611
10334 2 65535 5.08721 124.432 -74.907 7.75045 125.523 -75.7705 3.42878 125.825 -76.5257 4.08239 121.949 -72.4248
10635 2 65535 6.70113 123.08 -73.2428 7.75045 125.523 -75.7705 4.08239 121.949 -72.4248 8.27056 121.768 -71.533
10332 2 65535 9.41909 124.193 -73.9641 12.2363 125.289 -74.5889 7.75045 125.523 -75.7705 8.27056 121.768 -71.533
10867 2 65535 -15.6142 126.7 -74.3398 -17.5606 125.112 -72.6171 -12.8195 125.257 -74.3978 -16.4624 129.731 -76.0046
10888 2 65535 -18.4067 128.156 -74.1989 -16.4624 129.731 -76.0046 -21.197 129.625 -73.9751 -17.5606 125.112 -72.6171
10872 2 65535 -10.7957 126.871 -75.8772 -12.8195 125.257 -74.3978 -8.08651 125.485 -75.6824 -11.4812 129.87 -77.5515
10882 2 65535 -8.57142 128.478 -77.2823 -6.14656 130.079 -78.613 -11.4812 129.87 -77.5515 -8.08651 125.485 -75.6824
10884 2 65535 -13.5877 128.286 -75.9846 -11.4812 129.87 -77.5515 -16.4624 129.731 -76.0046 -12.8195 125.257 -74.3978
10874 2 65535 -5.93428 127.114 -76.9254 -8.08651 125.485 -75.6824 -3.56976 125.779 -76.4807 -6.14656 130.079 -78.613
10880 2 65535 -3.23878 128.603 -78.0145 -1.95712e-14 129.95 -78.9498 -6.14656 130.079 -78.613 -3.56976 125.779 -76.4807
10335 2 65535 1.14293 127.067 -77.2741 -1.85304e-14 125.426 -76.3467 3.42878 125.825 -76.5257 -1.95712e-14 129.95 -78.9498
10633 2 65535 3.15261 128.631 -78.0395 3.42878 125.825 -76.5257 6.02904 130.118 -78.6431 -1.95712e-14 129.95 -78.9498
10876 2 65535 -1.18992 127.052 -77.2591 -3.56976 125.779 -76.4807 -1.85304e-14 125.426 -76.3467 -1.95712e-14 129.95 -78.9498
10339 2 65535 8.33696 128.52 -77.3483 11.2314 129.92 -77.6314 6.02904 130.118 -78.6431 7.75045 125.523 -75.7705
10630 2 65535 5.73609 127.155 -76.9798 6.02904 130.118 -78.6431 3.42878 125.825 -76.5257 7.75045 125.523 -75.7705
10338 2 65535 13.182 128.339 -76.1312 16.0785 129.808 -76.1733 11.2314 129.92 -77.6314 12.2363 125.289 -74.5889
10631 2 65535 10.406 126.91 -75.9969 11.2314 129.92 -77.6314 7.75045 125.523 -75.7705 12.2363 125.289 -74.5889
10349 2 65535 14.9944 126.753 -74.5937 12.2363 125.289 -74.5889 16.6684 125.163 -73.0188 16.0785 129.808 -76.1733
10620 2 65535 17.8257 128.264 -74.4926 16.6684 125.163 -73.0188 20.7304 129.82 -74.2857 16.0785 129.808 -76.1733
9727 2 65535 -22.0183 136.656 -74.8417 -24.2552 135 -73.7228 -19.6355 135 -75.9831 -22.1642 139.967 -74.8191
10887 2 65535 -21.6959 133.208 -74.5603 -19.6355 135 -75.9831 -24.2552 135 -73.7228 -21.197 129.625 -73.9751
10002 2 65535 -17.3721 136.658 -76.8396 -19.6355 135 -75.9831 -14.9038 135 -77.7271 -17.5771 139.973 -76.8086
10868 2 65535 -19.0983 131.452 -75.3209 -21.197 129.625 -73.9751 -16.4624 129.731 -76.0046 -19.6355 135 -75.9831
10873 2 65535 -14.2825 131.534 -77.0944 -16.4624 129.731 -76.0046 -11.4812 129.87 -77.5515 -14.9038 135 -77.7271
10883 2 65535 -17.0006 133.244 -76.5716 -14.9038 135 -77.7271 -19.6355 135 -75.9831 -16.4624 129.731 -76.0046
10003 2 65535 -12.5859 136.654 -78.3452 -14.9038 135 -77.7271 -9.98666 135 -78.9925 -12.8673 139.962 -78.316
10875 2 65535 -9.2048 131.65 -78.3857 -11.4812 129.87 -77.5515 -6.14656 130.079 -78.613 -9.98666 135 -78.9925
10881 2 65535 -12.1239 133.29 -78.0904 -9.98666 135 -78.9925 -14.9038 135 -77.7271 -11.4812 129.87 -77.5515
9121 2 65535 12.6841 136.642 -78.3188 13.1612 139.927 -78.2367 9.98839 135 -78.9922 14.9026 135 -77.7275
10341 2 65535 12.0408 133.307 -78.117 14.9026 135 -77.7275 9.98839 135 -78.9922 11.2314 129.92 -77.6314
10628 2 65535 9.08294 131.679 -78.4222 9.98839 135 -78.9922 6.02904 130.118 -78.6431 11.2314 129.92 -77.6314
10629 2 65535 14.0708 131.576 -77.1774 14.9026 135 -77.7275 11.2314 129.92 -77.6314 16.0785 129.808 -76.1733
9122 2 65535 17.4446 136.653 -76.8122 17.7951 139.959 -76.7262 14.9026 135 -77.7275 19.636 135 -75.9829
10340 2 65535 16.8724 133.269 -76.6279 19.636 135 -75.9829 14.9026 135 -77.7275 16.0785 129.808 -76.1733
10347 2 65535 18.815 131.543 -75.4806 16.0785 129.808 -76.1733 20.7304 129.82 -74.2857 19.636 135 -75.9829
9028 2 65535 22.0799 136.654 -74.811 19.636 135 -75.9829 24.2573 135 -73.7217 22.3464 139.963 -74.7285
10348 2 65535 23.3935 131.509 -73.2871 20.7304 129.82 -74.2857 25.1929 129.706 -71.8539 24.2573 135 -73.7217
10622 2 65535 21.5412 133.273 -74.6634 20.7304 129.82 -74.2857 24.2573 135 -73.7217 19.636 135 -75.9829
9728 2 65535 -24.4334 141.646 -73.5747 -26.5697 139.993 -72.3563 -22.1642 139.967 -74.8191 -24.5663 144.979 -73.5488
9748 2 65535 -19.7923 138.313 -75.8703 -17.5771 139.973 -76.8086 -22.1642 139.967 -74.8191 -19.6355 135 -75.9831
9998 2 65535 -19.954 141.64 -75.8002 -22.1642 139.967 -74.8191 -17.5771 139.973 -76.8086 -20.1207 144.98 -75.7729
10023 2 65535 -24.3297 138.32 -73.6327 -22.1642 139.967 -74.8191 -26.5697 139.993 -72.3563 -24.2552 135 -73.7228
9747 2 65535 -15.1161 138.312 -77.6172 -12.8673 139.962 -78.316 -17.5771 139.973 -76.8086 -14.9038 135 -77.7271
10000 2 65535 -15.3216 141.642 -77.5516 -17.5771 139.973 -76.8086 -12.8673 139.962 -78.316 -15.5203 144.991 -77.5302
8983 2 65535 19.9259 138.307 -75.8125 22.3464 139.963 -74.7285 17.7951 139.959 -76.7262 19.636 135 -75.9829
8984 2 65535 15.2863 138.295 -77.5635 17.7951 139.959 -76.7262 13.1612 139.927 -78.2367 14.9026 135 -77.7275
9117 2 65535 15.6469 141.617 -77.4464 15.9843 144.967 -77.3762 13.1612 139.927 -78.2367 17.7951 139.959 -76.7262
9119 2 65535 20.2082 141.63 -75.6888 20.4831 144.968 -75.6119 17.7951 139.959 -76.7262 22.3464 139.963 -74.7285
9029 2 65535 24.6485 141.642 -73.4536 22.3464 139.963 -74.7285 26.7219 139.989 -72.2604 24.877 144.973 -73.372
9079 2 65535 24.4419 138.317 -73.5702 24.2573 135 -73.7217 26.7219 139.989 -72.2604 22.3464 139.963 -74.7285
9752 2 65535 -22.2838 143.309 -74.7136 -20.1207 144.98 -75.7729 -24.5663 144.979 -73.5488 -22.1642 139.967 -74.8191
9999 2 65535 -22.4063 146.653 -74.6524 -24.5663 144.979 -73.5488 -20.1207 144.98 -75.7729 -22.5318 150.002 -74.6354
9750 2 65535 -17.7394 143.315 -76.7039 -15.5203 144.991 -77.5302 -20.1207 144.98 -75.7729 -17.5771 139.973 -76.8086
10001 2 65535 -17.8873 146.664 -76.6475 -20.1207 144.98 -75.7729 -15.5203 144.991 -77.5302 -18.021 150.02 -76.6395
9757 2 65535 -13.2009 146.678 -78.1832 -15.5203 144.991 -77.5302 -10.7348 145.007 -78.8341 -13.3476 150.037 -78.1855
9995 2 65535 -13.0408 143.32 -78.2267 -10.7348 145.007 -78.8341 -15.5203 144.991 -77.5302 -12.8673 139.962 -78.316
8979 2 65535 13.5426 143.284 -78.0922 15.9843 144.967 -77.3762 11.4825 144.959 -78.6637 13.1612 139.927 -78.2367
9124 2 65535 13.8638 146.647 -78.0011 14.1246 150.016 -77.9635 11.4825 144.959 -78.6637 15.9843 144.967 -77.3762
8988 2 65535 18.0875 143.298 -76.5714 20.4831 144.968 -75.6119 15.9843 144.967 -77.3762 17.7951 139.959 -76.7262
9118 2 65535 18.3602 146.644 -76.4648 18.6132 149.998 -76.4064 15.9843 144.967 -77.3762 20.4831 144.968 -75.6119
8986 2 65535 22.5689 143.301 -74.5708 24.877 144.973 -73.372 20.4831 144.968 -75.6119 22.3464 139.963 -74.7285
9120 2 65535 22.7954 146.642 -74.4555 23.026 149.984 -74.3825 20.4831 144.968 -75.6119 24.877 144.973 -73.372
9749 2 65535 -20.2245 148.334 -75.6826 -18.021 150.02 -76.6395 -22.5318 150.002 -74.6354 -20.1207 144.98 -75.7729
9751 2 65535 -24.6527 148.325 -73.4523 -22.5318 150.002 -74.6354 -26.86 149.996 -72.1727 -24.5663 144.979 -73.5488
9987 2 65535 -24.7338 151.673 -73.4063 -26.86 149.996 -72.1727 -22.5318 150.002 -74.6354 -24.8095 155.022 -73.4107
9988 2 65535 -20.3018 151.685 -75.6484 -22.5318 150.002 -74.6354 -18.021 150.02 -76.6395 -20.3527 155.034 -75.6702
9989 2 65535 -15.6892 151.7 -77.4322 -18.021 150.02 -76.6395 -13.3476 150.037 -78.1855 -15.6991 155.042 -77.4714
9994 2 65535 -15.6296 148.35 -77.4517 -13.3476 150.037 -78.1855 -18.021 150.02 -76.6395 -15.5203 144.991 -77.5302
8982 2 65535 11.7298 148.336 -78.5668 14.1246 150.016 -77.9635 9.58241 150.033 -79.0732 11.4825 144.959 -78.6637
9113 2 65535 11.9431 151.696 -78.515 12.1221 155.038 -78.5083 9.58241 150.033 -79.0732 14.1246 150.016 -77.9635
8981 2 65535 16.2407 148.327 -77.2487 18.6132 149.998 -76.4064 14.1246 150.016 -77.9635 15.9843 144.967 -77.3762
9011 2 65535 16.4655 151.68 -77.171 14.1246 150.016 -77.9635 18.6132 149.998 -76.4064 16.6586 155.026 -77.1433
8985 2 65535 25.0597 148.312 -73.2198 27.276 149.979 -71.9049 23.026 149.984 -74.3825 24.877 144.973 -73.372
8987 2 65535 20.7074 148.317 -75.4669 23.026 149.984 -74.3825 18.6132 149.998 -76.4064 20.4831 144.968 -75.6119
9012 2 65535 20.9219 151.664 -75.3688 18.6132 149.998 -76.4064 23.026 149.984 -74.3825 21.1264 155.01 -75.3175
9095 2 65535 23.2008 153.33 -74.2461 23.026 149.984 -74.3825 25.4501 154.996 -73.0382 21.1264 155.01 -75.3175
9099 2 65535 25.2507 151.653 -73.1085 25.4501 154.996 -73.0382 23.026 149.984 -74.3825 27.276 149.979 -71.9049
9764 2 65535 -22.5647 153.353 -74.5721 -20.3527 155.034 -75.6702 -24.8095 155.022 -73.4107 -22.5318 150.002 -74.6354
9767 2 65535 -20.3218 158.365 -75.6373 -17.9958 160.028 -76.6492 -22.6169 160.031 -74.5923 -20.3527 155.034 -75.6702
9771 2 65535 -22.593 156.696 -74.5577 -24.8095 155.022 -73.4107 -20.3527 155.034 -75.6702 -22.6169 160.031 -74.5923
9981 2 65535 -24.8133 158.358 -73.3592 -22.6169 160.031 -74.5923 -27.0136 160.022 -72.0745 -24.8095 155.022 -73.4107
9763 2 65535 -18.0243 153.366 -76.5937 -15.6991 155.042 -77.4714 -20.3527 155.034 -75.6702 -18.021 150.02 -76.6395
9979 2 65535 -15.6344 158.359 -77.4482 -13.2084 160.006 -78.2238 -17.9958 160.028 -76.6492 -15.6991 155.042 -77.4714
9985 2 65535 -18.0159 156.701 -76.597 -20.3527 155.034 -75.6702 -15.6991 155.042 -77.4714 -17.9958 160.028 -76.6492
9773 2 65535 -13.2427 156.69 -78.1701 -15.6991 155.042 -77.4714 -10.8207 155.022 -78.8151 -13.2084 160.006 -78.2238
9980 2 65535 -13.2891 153.367 -78.1573 -10.8207 155.022 -78.8151 -15.6991 155.042 -77.4714 -13.3476 150.037 -78.1855
8993 2 65535 14.3018 153.36 -77.8717 16.6586 155.026 -77.1433 12.1221 155.038 -78.5083 14.1246 150.016 -77.9635
8996 2 65535 12.2032 158.366 -78.4482 14.5723 160.027 -77.8294 9.91509 160.031 -79.0071 12.1221 155.038 -78.5083
9111 2 65535 14.451 156.697 -77.827 14.5723 160.027 -77.8294 12.1221 155.038 -78.5083 16.6586 155.026 -77.1433
8995 2 65535 16.7857 158.358 -77.0566 19.1263 160.022 -76.1972 14.5723 160.027 -77.8294 16.6586 155.026 -77.1433
9009 2 65535 18.9704 156.686 -76.2194 16.6586 155.026 -77.1433 21.1264 155.01 -75.3175 19.1263 160.022 -76.1972
9096 2 65535 18.7994 153.345 -76.2891 18.6132 149.998 -76.4064 21.1264 155.01 -75.3175 16.6586 155.026 -77.1433
9010 2 65535 23.3757 156.673 -74.154 21.1264 155.01 -75.3175 25.4501 154.996 -73.0382 23.5506 160.014 -74.1063
9098 2 65535 21.2678 158.349 -75.207 21.1264 155.01 -75.3175 23.5506 160.014 -74.1063 19.1263 160.022 -76.1972
9766 2 65535 -22.6372 163.348 -74.5334 -20.3752 165.005 -75.6602 -24.9194 165.009 -73.3477 -22.6169 160.031 -74.5923
9769 2 65535 -24.85 161.687 -73.3382 -27.0136 160.022 -72.0745 -22.6169 160.031 -74.5923 -24.9194 165.009 -73.3477
9986 2 65535 -20.3293 161.688 -75.6339 -22.6169 160.031 -74.5923 -17.9958 160.028 -76.6492 -20.3752 165.005 -75.6602
9774 2 65535 -15.6165 161.673 -77.4541 -17.9958 160.028 -76.6492 -13.2084 160.006 -78.2238 -15.6454 164.986 -77.4892
9978 2 65535 -18.0055 163.339 -76.5995 -15.6454 164.986 -77.4892 -20.3752 165.005 -75.6602 -17.9958 160.028 -76.6492
9974 2 65535 -13.203 163.315 -78.1809 -10.7553 164.954 -78.8295 -15.6454 164.986 -77.4892 -13.2084 160.006 -78.2238
9004 2 65535 14.6662 163.35 -77.7598 17.0227 165.011 -77.0131 12.4037 165.013 -78.4371 14.5723 160.027 -77.8294
9103 2 65535 12.297 161.69 -78.4245 12.4037 165.013 -78.4371 9.91509 160.031 -79.0071 14.5723 160.027 -77.8294
9003 2 65535 19.2318 163.349 -76.1099 21.5463 165.015 -75.1194 17.0227 165.011 -77.0131 19.1263 160.022 -76.1972
9104 2 65535 16.9071 161.687 -77.0132 17.0227 165.011 -77.0131 14.5723 160.027 -77.8294 19.1263 160.022 -76.1972
9017 2 65535 21.4077 161.684 -75.141 19.1263 160.022 -76.1972 23.5506 160.014 -74.1063 21.5463 165.015 -75.1194
9090 2 65535 23.6629 163.347 -73.9999 23.5506 160.014 -74.1063 25.8916 165.013 -72.7741 21.5463 165.015 -75.1194
9819 2 65535 -25.0268 168.325 -73.2359 -22.8818 169.983 -74.457 -27.2791 169.985 -71.9029 -24.9194 165.009 -73.3477
9818 2 65535 -20.511 168.321 -75.5525 -18.276 169.976 -76.5402 -22.8818 169.983 -74.457 -20.3752 165.005 -75.6602
9934 2 65535 -22.7254 166.665 -74.4883 -24.9194 165.009 -73.3477 -20.3752 165.005 -75.6602 -22.8818 169.983 -74.457
9926 2 65535 -15.8283 168.308 -77.3848 -13.5635 169.962 -78.1252 -18.276 169.976 -76.5402 -15.6454 164.986 -77.4892
9935 2 65535 -18.0988 166.655 -76.5632 -20.3752 165.005 -75.6602 -15.6454 164.986 -77.4892 -18.276 169.976 -76.5402
9827 2 65535 -13.3214 166.634 -78.148 -15.6454 164.986 -77.4892 -10.7553 164.954 -78.8295 -13.5635 169.962 -78.1252
9105 2 65535 12.4726 168.335 -78.3785 12.4037 165.013 -78.4371 14.8631 169.987 -77.7398 10.1511 170.006 -78.9587
9006 2 65535 17.1128 168.331 -76.9379 19.4526 169.994 -76.0608 14.8631 169.987 -77.7398 17.0227 165.011 -77.0131
9101 2 65535 14.7631 166.67 -77.73 14.8631 169.987 -77.7398 12.4037 165.013 -78.4371 17.0227 165.011 -77.0131
9102 2 65535 19.3405 166.673 -76.0644 19.4526 169.994 -76.0608 17.0227 165.011 -77.0131 21.5463 165.015 -75.1194
9005 2 65535 21.6346 168.338 -75.0318 23.9049 170.005 -73.9153 19.4526 169.994 -76.0608 21.5463 165.015 -75.1194
9015 2 65535 23.7809 166.678 -73.9363 21.5463 165.015 -75.1194 25.8916 165.013 -72.7741 23.9049 170.005 -73.9153
9826 2 65535 -25.1885 171.648 -73.1416 -27.2791 169.985 -71.9029 -22.8818 169.983 -74.457 -25.4047 174.976 -73.0651
9822 2 65535 -23.0802 173.312 -74.3065 -20.9541 174.977 -75.3974 -25.4047 174.976 -73.0651 -22.8818 169.983 -74.457